
Host: hydrogen

Timers On : Sun Aug 28 13:12:34 2022
Timers Off: Sun Aug 28 13:12:35 2022

Wall Time:        0.19 seconds

                                                       Time (seconds)
Module                                       User      System        Wall        Calls

--------------------------------------------------------------------------------------

**************************************************************************************

Host: hydrogen

Timers On : Sun Aug 28 13:13:30 2022
Timers Off: Sun Aug 28 13:13:30 2022

Wall Time:        0.28 seconds

                                                       Time (seconds)
Module                                       User      System        Wall        Calls

--------------------------------------------------------------------------------------

**************************************************************************************
